<?xml version="1.0" encoding="UTF-8"?>

<!-- generated on Thu Oct 28 16:50:36 2021 by Eclipse SUMO Version 1.4.0
<configuration xmlns:xsi="http://www.w3.org/2001/XMLSchema-instance" xsi:noNamespaceSchemaLocation="http://sumo.dlr.de/xsd/sumoConfiguration.xsd">

    <input>
        <net-file value="/home/mroger/Desktop/VanetResearch/VANET-Research/SumoCFG/TwoVehiclesCrossNetwork.net.xml"/>
        <route-files value="/home/mroger/Desktop/VanetResearch/VANET-Research/SumoCFG/TwoVehiclesCrossingDemand.rou.xml"/>
    </input>

    <output>
        <fcd-output value="OutputFile"/>
    </output>

    <gui_only>
        <registry-viewport value="true"/>
    </gui_only>

</configuration>
-->

<fcd-export xmlns:xsi="http://www.w3.org/2001/XMLSchema-instance" xsi:noNamespaceSchemaLocation="http://sumo.dlr.de/xsd/fcd_file.xsd">
    <timestep time="0.00">
        <vehicle id="vehicle_0" x="4.74" y="2.48" angle="45.00" type="DEFAULT_VEHTYPE" speed="0.00" pos="5.10" lane="gneE0_0" slope="0.00"/>
        <vehicle id="vehicle_1" x="2.48" y="70.26" angle="135.00" type="DEFAULT_VEHTYPE" speed="0.00" pos="5.10" lane="gneE1_0" slope="0.00"/>
    </timestep>
    <timestep time="1.00">
        <vehicle id="vehicle_0" x="5.76" y="3.50" angle="45.00" type="DEFAULT_VEHTYPE" speed="1.44" pos="6.54" lane="gneE0_0" slope="0.00"/>
        <vehicle id="vehicle_1" x="4.31" y="68.43" angle="135.00" type="DEFAULT_VEHTYPE" speed="2.60" pos="7.70" lane="gneE1_0" slope="0.00"/>
    </timestep>
    <timestep time="2.00">
        <vehicle id="vehicle_0" x="7.96" y="5.70" angle="45.00" type="DEFAULT_VEHTYPE" speed="3.12" pos="9.66" lane="gneE0_0" slope="0.00"/>
        <vehicle id="vehicle_1" x="7.70" y="65.04" angle="135.00" type="DEFAULT_VEHTYPE" speed="4.79" pos="12.49" lane="gneE1_0" slope="0.00"/>
    </timestep>
    <timestep time="3.00">
        <vehicle id="vehicle_0" x="11.96" y="9.70" angle="45.00" type="DEFAULT_VEHTYPE" speed="5.66" pos="15.31" lane="gneE0_0" slope="0.00"/>
        <vehicle id="vehicle_1" x="12.28" y="60.46" angle="135.00" type="DEFAULT_VEHTYPE" speed="6.47" pos="18.96" lane="gneE1_0" slope="0.00"/>
    </timestep>
    <timestep time="4.00">
        <vehicle id="vehicle_0" x="17.34" y="15.08" angle="45.00" type="DEFAULT_VEHTYPE" speed="7.62" pos="22.93" lane="gneE0_0" slope="0.00"/>
        <vehicle id="vehicle_1" x="18.09" y="54.65" angle="135.00" type="DEFAULT_VEHTYPE" speed="8.22" pos="27.18" lane="gneE1_0" slope="0.00"/>
    </timestep>
    <timestep time="5.00">
        <vehicle id="vehicle_0" x="24.03" y="21.77" angle="45.00" type="DEFAULT_VEHTYPE" speed="9.45" pos="32.38" lane="gneE0_0" slope="0.00"/>
        <vehicle id="vehicle_1" x="25.11" y="47.63" angle="135.00" type="DEFAULT_VEHTYPE" speed="9.93" pos="37.11" lane="gneE1_0" slope="0.00"/>
    </timestep>
    <timestep time="6.00">
        <vehicle id="vehicle_0" x="32.51" y="30.25" angle="45.00" type="DEFAULT_VEHTYPE" speed="11.99" pos="44.38" lane="gneE0_0" slope="0.00"/>
        <vehicle id="vehicle_1" x="33.10" y="39.64" angle="135.00" type="DEFAULT_VEHTYPE" speed="11.30" pos="48.41" lane="gneE1_0" slope="0.00"/>
    </timestep>
    <timestep time="7.00">
        <vehicle id="vehicle_0" x="42.14" y="39.88" angle="45.00" type="DEFAULT_VEHTYPE" speed="13.63" pos="58.00" lane="gneE0_0" slope="0.00"/>
        <vehicle id="vehicle_1" x="42.04" y="30.70" angle="135.00" type="DEFAULT_VEHTYPE" speed="12.64" pos="61.06" lane="gneE1_0" slope="0.00"/>
    </timestep>
    <timestep time="8.00">
        <vehicle id="vehicle_0" x="52.33" y="50.07" angle="45.00" type="DEFAULT_VEHTYPE" speed="14.40" pos="72.40" lane="gneE0_0" slope="0.00"/>
        <vehicle id="vehicle_1" x="50.54" y="22.20" angle="135.00" type="DEFAULT_VEHTYPE" speed="12.02" pos="73.08" lane="gneE1_0" slope="0.00"/>
    </timestep>
    <timestep time="9.00">
        <vehicle id="vehicle_0" x="62.23" y="59.97" angle="45.00" type="DEFAULT_VEHTYPE" speed="14.01" pos="86.42" lane="gneE0_0" slope="0.00"/>
        <vehicle id="vehicle_1" x="59.69" y="13.05" angle="135.00" type="DEFAULT_VEHTYPE" speed="12.93" pos="86.01" lane="gneE1_0" slope="0.00"/>
    </timestep>
    <timestep time="10.00">
        <vehicle id="vehicle_0" x="71.96" y="69.70" angle="45.00" type="DEFAULT_VEHTYPE" speed="13.75" pos="100.17" lane="gneE0_0" slope="0.00"/>
        <vehicle id="vehicle_1" x="68.28" y="4.46" angle="135.00" type="DEFAULT_VEHTYPE" speed="12.15" pos="98.17" lane="gneE1_0" slope="0.00"/>
    </timestep>
    <timestep time="11.00"/>
</fcd-export>
